Program Version,EnergyPlus, Version 9.0.1-bb7ca4f0da, YMD=2021.02.03 17:59
1,5,Environment Title[],Latitude[deg],Longitude[deg],Time Zone[],Elevation[m]
2,8,Day of Simulation[],Month[],Day of Month[],DST Indicator[1=yes 0=no],Hour[],StartMinute[],EndMinute[],DayType
3,5,Cumulative Day of Simulation[],Month[],Day of Month[],DST Indicator[1=yes 0=no],DayType  ! When Daily Meters Requested
4,2,Cumulative Days of Simulation[],Month[]  ! When Monthly Meters Requested
5,1,Cumulative Days of Simulation[] ! When Run Period Meters Requested
6,1,Calendar Year of Simulation[] ! When Annual Meters Requested
25,1,Electricity:Facility [J] !Hourly
153,1,InteriorEquipment:Electricity [J] !Hourly
61,1,InteriorLights:Electricity [J] !Hourly
881,1,DistrictCooling:Facility [J] !Hourly
615,1,DistrictHeating:Facility [J] !Hourly
943,1,Carbon Equivalent:Facility [kg] !Hourly
End of Data Dictionary
1,MODELLO (O1-O4:3O-O9),  34.88,  33.62,   2.00,   2.40
2,1, 4, 1, 1, 1, 0.00,60.00,Saturday
25,164696.131145844
61,0.0
153,164696.131145844
615,301844.009729514
881,0.0
943,0.0
2,1, 4, 1, 1, 2, 0.00,60.00,Saturday
25,164696.131145844
61,0.0
153,164696.131145844
615,301844.009729514
881,0.0
943,0.0
2,1, 4, 1, 1, 3, 0.00,60.00,Saturday
25,164696.131145844
61,0.0
153,164696.131145844
615,301844.009729514
881,0.0
943,0.0
2,1, 4, 1, 1, 4, 0.00,60.00,Saturday
25,164696.131145844
61,0.0
153,164696.131145844
615,301844.009729514
881,0.0
943,0.0
2,1, 4, 1, 1, 5, 0.00,60.00,Saturday
25,164696.131145844
61,0.0
153,164696.131145844
615,301844.009729514
881,0.0
943,0.0
2,1, 4, 1, 1, 6, 0.00,60.00,Saturday
25,164696.131145844
61,0.0
153,164696.131145844
615,301844.009729514
881,0.0
943,0.0
2,1, 4, 1, 1, 7, 0.00,60.00,Saturday
25,3382795.6645936036
61,1043792.0717698868
153,2339003.5928237165
615,594726.1006348964
881,0.0
943,0.0
2,1, 4, 1, 1, 8, 0.00,60.00,Saturday
25,3124574.7044733718
61,669264.4036631512
153,2455310.30081022
615,594726.1006348964
881,0.0
943,0.0
2,1, 4, 1, 1, 9, 0.00,60.00,Saturday
25,2548772.5518066256
61,209768.95898290899
153,2339003.5928237165
615,594726.1006348964
881,0.0
943,0.0
2,1, 4, 1, 1,10, 0.00,60.00,Saturday
25,164696.131145844
61,0.0
153,164696.131145844
615,301844.009729514
881,0.0
943,0.0
2,1, 4, 1, 1,11, 0.00,60.00,Saturday
25,164696.131145844
61,0.0
153,164696.131145844
615,301844.009729514
881,0.0
943,0.0
2,1, 4, 1, 1,12, 0.00,60.00,Saturday
25,164696.131145844
61,0.0
153,164696.131145844
615,301844.009729514
881,0.0
943,0.0
2,1, 4, 1, 1,13, 0.00,60.00,Saturday
25,164696.131145844
61,0.0
153,164696.131145844
615,301844.009729514
881,0.0
943,0.0
2,1, 4, 1, 1,14, 0.00,60.00,Saturday
25,164696.131145844
61,0.0
153,164696.131145844
615,301844.009729514
881,0.0
943,0.0
2,1, 4, 1, 1,15, 0.00,60.00,Saturday
25,164696.131145844
61,0.0
153,164696.131145844
615,301844.009729514
881,0.0
943,0.0
2,1, 4, 1, 1,16, 0.00,60.00,Saturday
25,164696.131145844
61,0.0
153,164696.131145844
615,301844.009729514
881,0.0
943,0.0
2,1, 4, 1, 1,17, 0.00,60.00,Saturday
25,222850.73566818
61,0.0
153,222850.73566818
615,301844.009729514
881,0.0
943,0.0
2,1, 4, 1, 1,18, 0.00,60.00,Saturday
25,281005.340190516
61,0.0
153,281005.340190516
615,301844.009729514
881,0.0
943,0.0
2,1, 4, 1, 1,19, 0.00,60.00,Saturday
25,2036685.5541813244
61,1285928.4600000005
153,750757.0941813242
615,360420.4279105905
881,0.0
943,0.0
2,1, 4, 1, 1,20, 0.00,60.00,Saturday
25,2094840.1587036604
61,1285928.4600000005
153,808911.69870366
615,360420.4279105905
881,0.0
943,0.0
2,1, 4, 1, 1,21, 0.00,60.00,Saturday
25,2094840.1587036604
61,1285928.4600000005
153,808911.69870366
615,360420.4279105905
881,0.0
943,0.0
2,1, 4, 1, 1,22, 0.00,60.00,Saturday
25,2036685.5541813244
61,1285928.4600000005
153,750757.0941813242
615,360420.4279105905
881,0.0
943,0.0
2,1, 4, 1, 1,23, 0.00,60.00,Saturday
25,222850.73566818
61,0.0
153,222850.73566818
615,301844.009729514
881,0.0
943,0.0
2,1, 4, 1, 1,24, 0.00,60.00,Saturday
25,164696.131145844
61,0.0
153,164696.131145844
615,301844.009729514
881,0.0
943,0.0
2,2, 4, 2, 1, 1, 0.00,60.00,Sunday
25,164696.131145844
61,0.0
153,164696.131145844
615,301844.009729514
881,0.0
943,0.0
2,2, 4, 2, 1, 2, 0.00,60.00,Sunday
25,164696.131145844
61,0.0
153,164696.131145844
615,301844.009729514
881,0.0
943,0.0
2,2, 4, 2, 1, 3, 0.00,60.00,Sunday
25,164696.131145844
61,0.0
153,164696.131145844
615,301844.009729514
881,0.0
943,0.0
2,2, 4, 2, 1, 4, 0.00,60.00,Sunday
25,164696.131145844
61,0.0
153,164696.131145844
615,301844.009729514
881,0.0
943,0.0
2,2, 4, 2, 1, 5, 0.00,60.00,Sunday
25,164696.131145844
61,0.0
153,164696.131145844
615,301844.009729514
881,0.0
943,0.0
2,2, 4, 2, 1, 6, 0.00,60.00,Sunday
25,164696.131145844
61,0.0
153,164696.131145844
615,301844.009729514
881,0.0
943,0.0
2,2, 4, 2, 1, 7, 0.00,60.00,Sunday
25,3529769.2274308095
61,1190765.634607093
153,2339003.5928237165
615,594726.1006348963
881,0.0
943,0.0
2,2, 4, 2, 1, 8, 0.00,60.00,Sunday
25,3137530.0340227757
61,682219.7332125553
153,2455310.30081022
615,594726.1006348964
881,0.0
943,0.0
2,2, 4, 2, 1, 9, 0.00,60.00,Sunday
25,2661128.4125076218
61,322124.81968390496
153,2339003.5928237165
615,594726.1006348963
881,0.0
943,0.0
2,2, 4, 2, 1,10, 0.00,60.00,Sunday
25,164696.131145844
61,0.0
153,164696.131145844
615,301844.009729514
881,0.0
943,0.0
2,2, 4, 2, 1,11, 0.00,60.00,Sunday
25,164696.131145844
61,0.0
153,164696.131145844
615,301844.009729514
881,0.0
943,0.0
2,2, 4, 2, 1,12, 0.00,60.00,Sunday
25,164696.131145844
61,0.0
153,164696.131145844
615,301844.009729514
881,0.0
943,0.0
2,2, 4, 2, 1,13, 0.00,60.00,Sunday
25,164696.131145844
61,0.0
153,164696.131145844
615,301844.009729514
881,0.0
943,0.0
2,2, 4, 2, 1,14, 0.00,60.00,Sunday
25,164696.131145844
61,0.0
153,164696.131145844
615,301844.009729514
881,0.0
943,0.0
2,2, 4, 2, 1,15, 0.00,60.00,Sunday
25,164696.131145844
61,0.0
153,164696.131145844
615,301844.009729514
881,0.0
943,0.0
2,2, 4, 2, 1,16, 0.00,60.00,Sunday
25,164696.131145844
61,0.0
153,164696.131145844
615,301844.009729514
881,0.0
943,0.0
2,2, 4, 2, 1,17, 0.00,60.00,Sunday
25,222850.73566818
61,0.0
153,222850.73566818
615,301844.009729514
881,0.0
943,0.0
2,2, 4, 2, 1,18, 0.00,60.00,Sunday
25,281005.340190516
61,0.0
153,281005.340190516
615,301844.009729514
881,0.0
943,0.0
2,2, 4, 2, 1,19, 0.00,60.00,Sunday
25,2036685.5541813244
61,1285928.4600000005
153,750757.0941813242
615,360420.4279105905
881,0.0
943,0.0
2,2, 4, 2, 1,20, 0.00,60.00,Sunday
25,2094840.1587036604
61,1285928.4600000005
153,808911.69870366
615,360420.4279105905
881,0.0
943,0.0
2,2, 4, 2, 1,21, 0.00,60.00,Sunday
25,2094840.1587036604
61,1285928.4600000005
153,808911.69870366
615,360420.4279105905
881,0.0
943,0.0
2,2, 4, 2, 1,22, 0.00,60.00,Sunday
25,2036685.5541813244
61,1285928.4600000005
153,750757.0941813242
615,360420.4279105904
881,0.0
943,0.0
2,2, 4, 2, 1,23, 0.00,60.00,Sunday
25,222850.73566818
61,0.0
153,222850.73566818
615,301844.009729514
881,0.0
943,0.0
2,2, 4, 2, 1,24, 0.00,60.00,Sunday
25,164696.131145844
61,0.0
153,164696.131145844
615,301844.009729514
881,0.0
943,0.0
2,3, 4, 3, 1, 1, 0.00,60.00,Monday
25,164696.131145844
61,0.0
153,164696.131145844
615,301844.009729514
881,0.0
943,0.0
2,3, 4, 3, 1, 2, 0.00,60.00,Monday
25,164696.131145844
61,0.0
153,164696.131145844
615,301844.009729514
881,0.0
943,0.0
2,3, 4, 3, 1, 3, 0.00,60.00,Monday
25,164696.131145844
61,0.0
153,164696.131145844
615,301844.009729514
881,0.0
943,0.0
2,3, 4, 3, 1, 4, 0.00,60.00,Monday
25,164696.131145844
61,0.0
153,164696.131145844
615,301844.009729514
881,0.0
943,0.0
2,3, 4, 3, 1, 5, 0.00,60.00,Monday
25,164696.131145844
61,0.0
153,164696.131145844
615,301844.009729514
881,0.0
943,0.0
2,3, 4, 3, 1, 6, 0.00,60.00,Monday
25,171210.21493910402
61,0.0
153,171210.21493910402
615,301844.009729514
881,0.0
943,0.0
2,3, 4, 3, 1, 7, 0.00,60.00,Monday
25,3335181.988135739
61,970122.3373222422
153,2365059.6508134969
615,594726.1006348964
881,0.0
943,0.0
2,3, 4, 3, 1, 8, 0.00,60.00,Monday
25,2953578.575670628
61,472212.21687062716
153,2481366.3588
615,594726.1006348964
881,0.0
943,0.0
2,3, 4, 3, 1, 9, 0.00,60.00,Monday
25,2523756.726440351
61,178239.04982337467
153,2345517.6766169767
615,594726.1006348964
881,0.0
943,0.0
2,3, 4, 3, 1,10, 0.00,60.00,Monday
25,164696.131145844
61,0.0
153,164696.131145844
615,301844.009729514
881,0.0
943,0.0
2,3, 4, 3, 1,11, 0.00,60.00,Monday
25,164696.131145844
61,0.0
153,164696.131145844
615,301844.009729514
881,0.0
943,0.0
2,3, 4, 3, 1,12, 0.00,60.00,Monday
25,164696.131145844
61,0.0
153,164696.131145844
615,301844.009729514
881,0.0
943,0.0
2,3, 4, 3, 1,13, 0.00,60.00,Monday
25,164696.131145844
61,0.0
153,164696.131145844
615,301844.009729514
881,0.0
943,0.0
2,3, 4, 3, 1,14, 0.00,60.00,Monday
25,164696.131145844
61,0.0
153,164696.131145844
615,301844.009729514
881,0.0
943,0.0
2,3, 4, 3, 1,15, 0.00,60.00,Monday
25,164696.131145844
61,0.0
153,164696.131145844
615,301844.009729514
881,0.0
943,0.0
2,3, 4, 3, 1,16, 0.00,60.00,Monday
25,164696.131145844
61,0.0
153,164696.131145844
615,301844.009729514
881,0.0
943,0.0
2,3, 4, 3, 1,17, 0.00,60.00,Monday
25,222850.73566818
61,0.0
153,222850.73566818
615,301844.009729514
881,0.0
943,0.0
2,3, 4, 3, 1,18, 0.00,60.00,Monday
25,294033.507777036
61,0.0
153,294033.507777036
615,301844.009729514
881,0.0
943,0.0
2,3, 4, 3, 1,19, 0.00,60.00,Monday
25,2062741.6121711042
61,1285928.4600000005
153,776813.1521711041
615,360420.4279105905
881,0.0
943,0.0
2,3, 4, 3, 1,20, 0.00,60.00,Monday
25,2120896.2166934406
61,1285928.4600000005
153,834967.7566934403
615,360420.4279105904
881,0.0
943,0.0
2,3, 4, 3, 1,21, 0.00,60.00,Monday
25,2102657.0038189205
61,1285928.4600000005
153,816728.5438189202
615,360420.4279105904
881,0.0
943,0.0
2,3, 4, 3, 1,22, 0.00,60.00,Monday
25,2036685.5541813244
61,1285928.4600000005
153,750757.0941813242
615,360420.4279105904
881,0.0
943,0.0
2,3, 4, 3, 1,23, 0.00,60.00,Monday
25,222850.73566818
61,0.0
153,222850.73566818
615,301844.009729514
881,0.0
943,0.0
2,3, 4, 3, 1,24, 0.00,60.00,Monday
25,164696.131145844
61,0.0
153,164696.131145844
615,301844.009729514
881,0.0
943,0.0
2,4, 4, 4, 1, 1, 0.00,60.00,Tuesday
25,164696.131145844
61,0.0
153,164696.131145844
615,301844.009729514
881,0.0
943,0.0
2,4, 4, 4, 1, 2, 0.00,60.00,Tuesday
25,164696.131145844
61,0.0
153,164696.131145844
615,301844.009729514
881,0.0
943,0.0
2,4, 4, 4, 1, 3, 0.00,60.00,Tuesday
25,164696.131145844
61,0.0
153,164696.131145844
615,301844.009729514
881,0.0
943,0.0
2,4, 4, 4, 1, 4, 0.00,60.00,Tuesday
25,164696.131145844
61,0.0
153,164696.131145844
615,301844.009729514
881,0.0
943,0.0
2,4, 4, 4, 1, 5, 0.00,60.00,Tuesday
25,164696.131145844
61,0.0
153,164696.131145844
615,301844.009729514
881,0.0
943,0.0
2,4, 4, 4, 1, 6, 0.00,60.00,Tuesday
25,171210.21493910402
61,0.0
153,171210.21493910402
615,301844.009729514
881,0.0
943,0.0
2,4, 4, 4, 1, 7, 0.00,60.00,Tuesday
25,3467232.708500973
61,1102173.0576874768
153,2365059.6508134969
615,594726.1006348964
881,0.0
943,0.0
2,4, 4, 4, 1, 8, 0.00,60.00,Tuesday
25,2902323.454213401
61,420957.0954134005
153,2481366.3588
615,594726.1006348964
881,0.0
943,0.0
2,4, 4, 4, 1, 9, 0.00,60.00,Tuesday
25,2513787.151843768
61,168269.47522679144
153,2345517.6766169767
615,594726.1006348964
881,0.0
943,0.0
2,4, 4, 4, 1,10, 0.00,60.00,Tuesday
25,164696.131145844
61,0.0
153,164696.131145844
615,301844.009729514
881,0.0
943,0.0
2,4, 4, 4, 1,11, 0.00,60.00,Tuesday
25,164696.131145844
61,0.0
153,164696.131145844
615,301844.009729514
881,0.0
943,0.0
2,4, 4, 4, 1,12, 0.00,60.00,Tuesday
25,164696.131145844
61,0.0
153,164696.131145844
615,301844.009729514
881,0.0
943,0.0
2,4, 4, 4, 1,13, 0.00,60.00,Tuesday
25,164696.131145844
61,0.0
153,164696.131145844
615,301844.009729514
881,0.0
943,0.0
2,4, 4, 4, 1,14, 0.00,60.00,Tuesday
25,164696.131145844
61,0.0
153,164696.131145844
615,301844.009729514
881,0.0
943,0.0
2,4, 4, 4, 1,15, 0.00,60.00,Tuesday
25,164696.131145844
61,0.0
153,164696.131145844
615,301844.009729514
881,0.0
943,0.0
2,4, 4, 4, 1,16, 0.00,60.00,Tuesday
25,164696.131145844
61,0.0
153,164696.131145844
615,301844.009729514
881,0.0
943,0.0
2,4, 4, 4, 1,17, 0.00,60.00,Tuesday
25,222850.73566818
61,0.0
153,222850.73566818
615,301844.009729514
881,0.0
943,0.0
2,4, 4, 4, 1,18, 0.00,60.00,Tuesday
25,294033.507777036
61,0.0
153,294033.507777036
615,301844.00972951398
881,0.0
943,0.0
2,4, 4, 4, 1,19, 0.00,60.00,Tuesday
25,2062741.6121711042
61,1285928.4600000005
153,776813.1521711041
615,360420.4279105905
881,0.0
943,0.0
2,4, 4, 4, 1,20, 0.00,60.00,Tuesday
25,2120896.2166934406
61,1285928.4600000005
153,834967.7566934403
615,360420.4279105904
881,0.0
943,0.0
2,4, 4, 4, 1,21, 0.00,60.00,Tuesday
25,2102657.0038189205
61,1285928.4600000005
153,816728.5438189202
615,360420.4279105904
881,0.0
943,0.0
2,4, 4, 4, 1,22, 0.00,60.00,Tuesday
25,2036685.5541813244
61,1285928.4600000005
153,750757.0941813242
615,360420.4279105904
881,0.0
943,0.0
2,4, 4, 4, 1,23, 0.00,60.00,Tuesday
25,222850.73566818
61,0.0
153,222850.73566818
615,301844.009729514
881,0.0
943,0.0
2,4, 4, 4, 1,24, 0.00,60.00,Tuesday
25,164696.131145844
61,0.0
153,164696.131145844
615,301844.009729514
881,0.0
943,0.0
2,5, 4, 5, 1, 1, 0.00,60.00,Wednesday
25,164696.131145844
61,0.0
153,164696.131145844
615,301844.009729514
881,0.0
943,0.0
2,5, 4, 5, 1, 2, 0.00,60.00,Wednesday
25,164696.131145844
61,0.0
153,164696.131145844
615,301844.009729514
881,0.0
943,0.0
2,5, 4, 5, 1, 3, 0.00,60.00,Wednesday
25,164696.131145844
61,0.0
153,164696.131145844
615,301844.009729514
881,0.0
943,0.0
2,5, 4, 5, 1, 4, 0.00,60.00,Wednesday
25,164696.131145844
61,0.0
153,164696.131145844
615,301844.009729514
881,0.0
943,0.0
2,5, 4, 5, 1, 5, 0.00,60.00,Wednesday
25,164696.131145844
61,0.0
153,164696.131145844
615,301844.009729514
881,0.0
943,0.0
2,5, 4, 5, 1, 6, 0.00,60.00,Wednesday
25,171210.21493910402
61,0.0
153,171210.21493910402
615,301844.009729514
881,0.0
943,0.0
2,5, 4, 5, 1, 7, 0.00,60.00,Wednesday
25,3261679.2029043284
61,896619.5520908324
153,2365059.6508134969
615,594726.1006348964
881,0.0
943,0.0
2,5, 4, 5, 1, 8, 0.00,60.00,Wednesday
25,2919247.0388742976
61,437880.6800742971
153,2481366.3588
615,594726.1006348964
881,0.0
943,0.0
2,5, 4, 5, 1, 9, 0.00,60.00,Wednesday
25,2613128.648858655
61,267610.9722416781
153,2345517.6766169767
615,594726.1006348964
881,0.0
943,0.0
2,5, 4, 5, 1,10, 0.00,60.00,Wednesday
25,164696.131145844
61,0.0
153,164696.131145844
615,301844.009729514
881,0.0
943,0.0
2,5, 4, 5, 1,11, 0.00,60.00,Wednesday
25,164696.131145844
61,0.0
153,164696.131145844
615,301844.009729514
881,0.0
943,0.0
2,5, 4, 5, 1,12, 0.00,60.00,Wednesday
25,164696.131145844
61,0.0
153,164696.131145844
615,301844.009729514
881,0.0
943,0.0
2,5, 4, 5, 1,13, 0.00,60.00,Wednesday
25,164696.131145844
61,0.0
153,164696.131145844
615,301844.009729514
881,0.0
943,0.0
2,5, 4, 5, 1,14, 0.00,60.00,Wednesday
25,164696.131145844
61,0.0
153,164696.131145844
615,301844.009729514
881,0.0
943,0.0
2,5, 4, 5, 1,15, 0.00,60.00,Wednesday
25,164696.131145844
61,0.0
153,164696.131145844
615,301844.009729514
881,0.0
943,0.0
2,5, 4, 5, 1,16, 0.00,60.00,Wednesday
25,164696.131145844
61,0.0
153,164696.131145844
615,301844.009729514
881,0.0
943,0.0
2,5, 4, 5, 1,17, 0.00,60.00,Wednesday
25,222850.73566818
61,0.0
153,222850.73566818
615,301844.009729514
881,0.0
943,0.0
2,5, 4, 5, 1,18, 0.00,60.00,Wednesday
25,294033.507777036
61,0.0
153,294033.507777036
615,301844.009729514
881,0.0
943,0.0
2,5, 4, 5, 1,19, 0.00,60.00,Wednesday
25,2062741.6121711042
61,1285928.4600000005
153,776813.1521711041
615,360420.4279105904
881,0.0
943,0.0
2,5, 4, 5, 1,20, 0.00,60.00,Wednesday
25,2120896.2166934406
61,1285928.4600000005
153,834967.7566934403
615,360420.4279105904
881,0.0
943,0.0
2,5, 4, 5, 1,21, 0.00,60.00,Wednesday
25,2102657.0038189205
61,1285928.4600000005
153,816728.5438189202
615,360420.4279105904
881,0.0
943,0.0
2,5, 4, 5, 1,22, 0.00,60.00,Wednesday
25,2036685.5541813244
61,1285928.4600000005
153,750757.0941813242
615,360420.4279105904
881,0.0
943,0.0
2,5, 4, 5, 1,23, 0.00,60.00,Wednesday
25,222850.73566818
61,0.0
153,222850.73566818
615,301844.009729514
881,0.0
943,0.0
2,5, 4, 5, 1,24, 0.00,60.00,Wednesday
25,164696.131145844
61,0.0
153,164696.131145844
615,301844.009729514
881,0.0
943,0.0
2,6, 4, 6, 1, 1, 0.00,60.00,Thursday
25,164696.131145844
61,0.0
153,164696.131145844
615,301844.009729514
881,0.0
943,0.0
2,6, 4, 6, 1, 2, 0.00,60.00,Thursday
25,164696.131145844
61,0.0
153,164696.131145844
615,301844.009729514
881,0.0
943,0.0
2,6, 4, 6, 1, 3, 0.00,60.00,Thursday
25,164696.131145844
61,0.0
153,164696.131145844
615,301844.009729514
881,0.0
943,0.0
2,6, 4, 6, 1, 4, 0.00,60.00,Thursday
25,164696.131145844
61,0.0
153,164696.131145844
615,301844.009729514
881,0.0
943,0.0
2,6, 4, 6, 1, 5, 0.00,60.00,Thursday
25,164696.131145844
61,0.0
153,164696.131145844
615,301844.009729514
881,0.0
943,0.0
2,6, 4, 6, 1, 6, 0.00,60.00,Thursday
25,171210.21493910402
61,0.0
153,171210.21493910402
615,301844.009729514
881,0.0
943,0.0
2,6, 4, 6, 1, 7, 0.00,60.00,Thursday
25,3251726.2194936338
61,886666.568680137
153,2365059.6508134969
615,594726.1006348964
881,0.0
943,0.0
2,6, 4, 6, 1, 8, 0.00,60.00,Thursday
25,2930722.981700486
61,449356.62290048549
153,2481366.3588
615,594726.1006348964
881,0.0
943,0.0
2,6, 4, 6, 1, 9, 0.00,60.00,Thursday
25,2579502.6296059235
61,233984.95298894644
153,2345517.6766169767
615,594726.1006348964
881,0.0
943,0.0
2,6, 4, 6, 1,10, 0.00,60.00,Thursday
25,164696.131145844
61,0.0
153,164696.131145844
615,301844.009729514
881,0.0
943,0.0
2,6, 4, 6, 1,11, 0.00,60.00,Thursday
25,164696.131145844
61,0.0
153,164696.131145844
615,301844.009729514
881,0.0
943,0.0
2,6, 4, 6, 1,12, 0.00,60.00,Thursday
25,164696.131145844
61,0.0
153,164696.131145844
615,301844.009729514
881,0.0
943,0.0
2,6, 4, 6, 1,13, 0.00,60.00,Thursday
25,164696.131145844
61,0.0
153,164696.131145844
615,301844.009729514
881,0.0
943,0.0
2,6, 4, 6, 1,14, 0.00,60.00,Thursday
25,164696.131145844
61,0.0
153,164696.131145844
615,301844.009729514
881,0.0
943,0.0
2,6, 4, 6, 1,15, 0.00,60.00,Thursday
25,164696.131145844
61,0.0
153,164696.131145844
615,301844.009729514
881,0.0
943,0.0
2,6, 4, 6, 1,16, 0.00,60.00,Thursday
25,164696.131145844
61,0.0
153,164696.131145844
615,301844.009729514
881,0.0
943,0.0
2,6, 4, 6, 1,17, 0.00,60.00,Thursday
25,222850.73566818
61,0.0
153,222850.73566818
615,301844.009729514
881,0.0
943,0.0
2,6, 4, 6, 1,18, 0.00,60.00,Thursday
25,294033.507777036
61,0.0
153,294033.507777036
615,301844.009729514
881,0.0
943,0.0
2,6, 4, 6, 1,19, 0.00,60.00,Thursday
25,2062741.6121711042
61,1285928.4600000005
153,776813.1521711041
615,360420.4279105905
881,0.0
943,0.0
2,6, 4, 6, 1,20, 0.00,60.00,Thursday
25,2120896.2166934406
61,1285928.4600000005
153,834967.7566934403
615,360420.4279105905
881,0.0
943,0.0
2,6, 4, 6, 1,21, 0.00,60.00,Thursday
25,2102657.0038189205
61,1285928.4600000005
153,816728.5438189202
615,360420.4279105905
881,0.0
943,0.0
2,6, 4, 6, 1,22, 0.00,60.00,Thursday
25,2036685.5541813244
61,1285928.4600000005
153,750757.0941813242
615,360420.4279105905
881,0.0
943,0.0
2,6, 4, 6, 1,23, 0.00,60.00,Thursday
25,222850.73566818
61,0.0
153,222850.73566818
615,301844.009729514
881,0.0
943,0.0
2,6, 4, 6, 1,24, 0.00,60.00,Thursday
25,164696.131145844
61,0.0
153,164696.131145844
615,301844.009729514
881,0.0
943,0.0
2,7, 4, 7, 1, 1, 0.00,60.00,Friday
25,164696.131145844
61,0.0
153,164696.131145844
615,301844.009729514
881,0.0
943,0.0
2,7, 4, 7, 1, 2, 0.00,60.00,Friday
25,164696.131145844
61,0.0
153,164696.131145844
615,301844.009729514
881,0.0
943,0.0
2,7, 4, 7, 1, 3, 0.00,60.00,Friday
25,164696.131145844
61,0.0
153,164696.131145844
615,301844.009729514
881,0.0
943,0.0
2,7, 4, 7, 1, 4, 0.00,60.00,Friday
25,164696.131145844
61,0.0
153,164696.131145844
615,301844.009729514
881,0.0
943,0.0
2,7, 4, 7, 1, 5, 0.00,60.00,Friday
25,164696.131145844
61,0.0
153,164696.131145844
615,301844.009729514
881,0.0
943,0.0
2,7, 4, 7, 1, 6, 0.00,60.00,Friday
25,171210.21493910402
61,0.0
153,171210.21493910402
615,301844.009729514
881,0.0
943,0.0
2,7, 4, 7, 1, 7, 0.00,60.00,Friday
25,3247308.0852733759
61,882248.4344598792
153,2365059.6508134969
615,594726.1006348964
881,0.0
943,0.0
2,7, 4, 7, 1, 8, 0.00,60.00,Friday
25,2950931.711367331
61,469565.3525673308
153,2481366.3588
615,594726.1006348964
881,0.0
943,0.0
2,7, 4, 7, 1, 9, 0.00,60.00,Friday
25,2528385.7995975569
61,182868.12298058027
153,2345517.6766169767
615,594726.1006348964
881,0.0
943,0.0
2,7, 4, 7, 1,10, 0.00,60.00,Friday
25,164696.131145844
61,0.0
153,164696.131145844
615,301844.009729514
881,0.0
943,0.0
2,7, 4, 7, 1,11, 0.00,60.00,Friday
25,164696.131145844
61,0.0
153,164696.131145844
615,301844.009729514
881,0.0
943,0.0
2,7, 4, 7, 1,12, 0.00,60.00,Friday
25,164696.131145844
61,0.0
153,164696.131145844
615,301844.009729514
881,0.0
943,0.0
2,7, 4, 7, 1,13, 0.00,60.00,Friday
25,164696.131145844
61,0.0
153,164696.131145844
615,301844.009729514
881,0.0
943,0.0
2,7, 4, 7, 1,14, 0.00,60.00,Friday
25,164696.131145844
61,0.0
153,164696.131145844
615,301844.009729514
881,0.0
943,0.0
2,7, 4, 7, 1,15, 0.00,60.00,Friday
25,164696.131145844
61,0.0
153,164696.131145844
615,301844.009729514
881,0.0
943,0.0
2,7, 4, 7, 1,16, 0.00,60.00,Friday
25,164696.131145844
61,0.0
153,164696.131145844
615,301844.009729514
881,0.0
943,0.0
2,7, 4, 7, 1,17, 0.00,60.00,Friday
25,222850.73566818
61,0.0
153,222850.73566818
615,301844.009729514
881,0.0
943,0.0
2,7, 4, 7, 1,18, 0.00,60.00,Friday
25,294033.507777036
61,0.0
153,294033.507777036
615,301844.009729514
881,0.0
943,0.0
2,7, 4, 7, 1,19, 0.00,60.00,Friday
25,2062741.6121711042
61,1285928.4600000005
153,776813.1521711041
615,360420.4279105905
881,0.0
943,0.0
2,7, 4, 7, 1,20, 0.00,60.00,Friday
25,2120896.2166934406
61,1285928.4600000005
153,834967.7566934403
615,360420.4279105905
881,0.0
943,0.0
2,7, 4, 7, 1,21, 0.00,60.00,Friday
25,2102657.0038189205
61,1285928.4600000005
153,816728.5438189202
615,360420.4279105905
881,0.0
943,0.0
2,7, 4, 7, 1,22, 0.00,60.00,Friday
25,2036685.5541813244
61,1285928.4600000005
153,750757.0941813242
615,360420.4279105905
881,0.0
943,0.0
2,7, 4, 7, 1,23, 0.00,60.00,Friday
25,222850.73566818
61,0.0
153,222850.73566818
615,301844.009729514
881,0.0
943,0.0
2,7, 4, 7, 1,24, 0.00,60.00,Friday
25,164696.131145844
61,0.0
153,164696.131145844
615,301844.009729514
881,0.0
943,0.0
2,8, 4, 8, 1, 1, 0.00,60.00,Saturday
25,164696.131145844
61,0.0
153,164696.131145844
615,301844.009729514
881,0.0
943,0.0
2,8, 4, 8, 1, 2, 0.00,60.00,Saturday
25,164696.131145844
61,0.0
153,164696.131145844
615,301844.009729514
881,0.0
943,0.0
2,8, 4, 8, 1, 3, 0.00,60.00,Saturday
25,164696.131145844
61,0.0
153,164696.131145844
615,301844.009729514
881,0.0
943,0.0
2,8, 4, 8, 1, 4, 0.00,60.00,Saturday
25,164696.131145844
61,0.0
153,164696.131145844
615,301844.009729514
881,0.0
943,0.0
2,8, 4, 8, 1, 5, 0.00,60.00,Saturday
25,164696.131145844
61,0.0
153,164696.131145844
615,301844.009729514
881,0.0
943,0.0
2,8, 4, 8, 1, 6, 0.00,60.00,Saturday
25,164696.131145844
61,0.0
153,164696.131145844
615,301844.009729514
881,0.0
943,0.0
2,8, 4, 8, 1, 7, 0.00,60.00,Saturday
25,3219936.9408900749
61,880933.3480663581
153,2339003.5928237165
615,594726.1006348964
881,0.0
943,0.0
2,8, 4, 8, 1, 8, 0.00,60.00,Saturday
25,2874042.7812304135
61,418732.4804201928
153,2455310.30081022
615,594726.1006348964
881,0.0
943,0.0
2,8, 4, 8, 1, 9, 0.00,60.00,Saturday
25,2518400.969397255
61,179397.37657353853
153,2339003.5928237165
615,594726.1006348964
881,0.0
943,0.0
2,8, 4, 8, 1,10, 0.00,60.00,Saturday
25,164696.131145844
61,0.0
153,164696.131145844
615,301844.009729514
881,0.0
943,0.0
2,8, 4, 8, 1,11, 0.00,60.00,Saturday
25,164696.131145844
61,0.0
153,164696.131145844
615,301844.009729514
881,0.0
943,0.0
2,8, 4, 8, 1,12, 0.00,60.00,Saturday
25,164696.131145844
61,0.0
153,164696.131145844
615,301844.009729514
881,0.0
943,0.0
2,8, 4, 8, 1,13, 0.00,60.00,Saturday
25,164696.131145844
61,0.0
153,164696.131145844
615,301844.009729514
881,0.0
943,0.0
2,8, 4, 8, 1,14, 0.00,60.00,Saturday
25,164696.131145844
61,0.0
153,164696.131145844
615,301844.009729514
881,0.0
943,0.0
2,8, 4, 8, 1,15, 0.00,60.00,Saturday
25,164696.131145844
61,0.0
153,164696.131145844
615,301844.009729514
881,0.0
943,0.0
2,8, 4, 8, 1,16, 0.00,60.00,Saturday
25,164696.131145844
61,0.0
153,164696.131145844
615,301844.009729514
881,0.0
943,0.0
2,8, 4, 8, 1,17, 0.00,60.00,Saturday
25,222850.73566818
61,0.0
153,222850.73566818
615,301844.009729514
881,0.0
943,0.0
2,8, 4, 8, 1,18, 0.00,60.00,Saturday
25,281005.340190516
61,0.0
153,281005.340190516
615,301844.009729514
881,0.0
943,0.0
2,8, 4, 8, 1,19, 0.00,60.00,Saturday
25,2036685.5541813244
61,1285928.4600000005
153,750757.0941813242
615,360420.4279105905
881,0.0
943,0.0
2,8, 4, 8, 1,20, 0.00,60.00,Saturday
25,2094840.1587036604
61,1285928.4600000005
153,808911.69870366
615,360420.4279105905
881,0.0
943,0.0
2,8, 4, 8, 1,21, 0.00,60.00,Saturday
25,2094840.1587036604
61,1285928.4600000005
153,808911.69870366
615,360420.4279105905
881,0.0
943,0.0
2,8, 4, 8, 1,22, 0.00,60.00,Saturday
25,2036685.5541813244
61,1285928.4600000005
153,750757.0941813242
615,360420.4279105905
881,0.0
943,0.0
2,8, 4, 8, 1,23, 0.00,60.00,Saturday
25,222850.73566818
61,0.0
153,222850.73566818
615,301844.009729514
881,0.0
943,0.0
2,8, 4, 8, 1,24, 0.00,60.00,Saturday
25,164696.131145844
61,0.0
153,164696.131145844
615,301844.009729514
881,0.0
943,0.0
2,9, 4, 9, 1, 1, 0.00,60.00,Sunday
25,164696.131145844
61,0.0
153,164696.131145844
615,301844.009729514
881,0.0
943,0.0
2,9, 4, 9, 1, 2, 0.00,60.00,Sunday
25,164696.131145844
61,0.0
153,164696.131145844
615,301844.009729514
881,0.0
943,0.0
2,9, 4, 9, 1, 3, 0.00,60.00,Sunday
25,164696.131145844
61,0.0
153,164696.131145844
615,301844.009729514
881,0.0
943,0.0
2,9, 4, 9, 1, 4, 0.00,60.00,Sunday
25,164696.131145844
61,0.0
153,164696.131145844
615,301844.009729514
881,0.0
943,0.0
2,9, 4, 9, 1, 5, 0.00,60.00,Sunday
25,164696.131145844
61,0.0
153,164696.131145844
615,301844.009729514
881,0.0
943,0.0
2,9, 4, 9, 1, 6, 0.00,60.00,Sunday
25,164696.131145844
61,0.0
153,164696.131145844
615,301844.009729514
881,0.0
943,0.0
2,9, 4, 9, 1, 7, 0.00,60.00,Sunday
25,3202028.3099843745
61,863024.7171606579
153,2339003.5928237165
615,594726.1006348964
881,0.0
943,0.0
2,9, 4, 9, 1, 8, 0.00,60.00,Sunday
25,2898590.683464801
61,443280.3826545801
153,2455310.30081022
615,594726.1006348963
881,0.0
943,0.0
2,9, 4, 9, 1, 9, 0.00,60.00,Sunday
25,2635629.9230455129
61,296626.3302217965
153,2339003.5928237165
615,594726.1006348964
881,0.0
943,0.0
2,9, 4, 9, 1,10, 0.00,60.00,Sunday
25,164696.131145844
61,0.0
153,164696.131145844
615,301844.009729514
881,0.0
943,0.0
2,9, 4, 9, 1,11, 0.00,60.00,Sunday
25,164696.131145844
61,0.0
153,164696.131145844
615,301844.009729514
881,0.0
943,0.0
2,9, 4, 9, 1,12, 0.00,60.00,Sunday
25,164696.131145844
61,0.0
153,164696.131145844
615,301844.009729514
881,0.0
943,0.0
2,9, 4, 9, 1,13, 0.00,60.00,Sunday
25,164696.131145844
61,0.0
153,164696.131145844
615,301844.009729514
881,0.0
943,0.0
2,9, 4, 9, 1,14, 0.00,60.00,Sunday
25,164696.131145844
61,0.0
153,164696.131145844
615,301844.009729514
881,0.0
943,0.0
2,9, 4, 9, 1,15, 0.00,60.00,Sunday
25,164696.131145844
61,0.0
153,164696.131145844
615,301844.009729514
881,0.0
943,0.0
2,9, 4, 9, 1,16, 0.00,60.00,Sunday
25,164696.131145844
61,0.0
153,164696.131145844
615,301844.009729514
881,0.0
943,0.0
2,9, 4, 9, 1,17, 0.00,60.00,Sunday
25,222850.73566818
61,0.0
153,222850.73566818
615,301844.009729514
881,0.0
943,0.0
2,9, 4, 9, 1,18, 0.00,60.00,Sunday
25,281005.340190516
61,0.0
153,281005.340190516
615,301844.009729514
881,0.0
943,0.0
2,9, 4, 9, 1,19, 0.00,60.00,Sunday
25,2036685.5541813244
61,1285928.4600000005
153,750757.0941813242
615,360420.4279105904
881,0.0
943,0.0
2,9, 4, 9, 1,20, 0.00,60.00,Sunday
25,2094840.1587036604
61,1285928.4600000005
153,808911.69870366
615,360420.4279105905
881,0.0
943,0.0
2,9, 4, 9, 1,21, 0.00,60.00,Sunday
25,2094840.1587036604
61,1285928.4600000005
153,808911.69870366
615,360420.4279105905
881,0.0
943,0.0
2,9, 4, 9, 1,22, 0.00,60.00,Sunday
25,2036685.5541813244
61,1285928.4600000005
153,750757.0941813242
615,360420.4279105905
881,0.0
943,0.0
2,9, 4, 9, 1,23, 0.00,60.00,Sunday
25,222850.73566818
61,0.0
153,222850.73566818
615,301844.009729514
881,0.0
943,0.0
2,9, 4, 9, 1,24, 0.00,60.00,Sunday
25,164696.131145844
61,0.0
153,164696.131145844
615,301844.009729514
881,0.0
943,0.0
2,10, 4,10, 1, 1, 0.00,60.00,Monday
25,164696.131145844
61,0.0
153,164696.131145844
615,301844.009729514
881,0.0
943,0.0
2,10, 4,10, 1, 2, 0.00,60.00,Monday
25,164696.131145844
61,0.0
153,164696.131145844
615,301844.009729514
881,0.0
943,0.0
2,10, 4,10, 1, 3, 0.00,60.00,Monday
25,164696.131145844
61,0.0
153,164696.131145844
615,301844.009729514
881,0.0
943,0.0
2,10, 4,10, 1, 4, 0.00,60.00,Monday
25,164696.131145844
61,0.0
153,164696.131145844
615,301844.009729514
881,0.0
943,0.0
2,10, 4,10, 1, 5, 0.00,60.00,Monday
25,164696.131145844
61,0.0
153,164696.131145844
615,301844.009729514
881,0.0
943,0.0
2,10, 4,10, 1, 6, 0.00,60.00,Monday
25,171210.21493910402
61,0.0
153,171210.21493910402
615,301844.009729514
881,0.0
943,0.0
2,10, 4,10, 1, 7, 0.00,60.00,Monday
25,3210391.5890842305
61,845331.9382707342
153,2365059.6508134969
615,594726.1006348964
881,0.0
943,0.0
2,10, 4,10, 1, 8, 0.00,60.00,Monday
25,2907890.9251646955
61,426524.5663646946
153,2481366.3588
615,594726.1006348963
881,0.0
943,0.0
2,10, 4,10, 1, 9, 0.00,60.00,Monday
25,2589634.8770118218
61,244117.20039484479
153,2345517.6766169767
615,594726.1006348963
881,0.0
943,0.0
2,10, 4,10, 1,10, 0.00,60.00,Monday
25,164696.131145844
61,0.0
153,164696.131145844
615,301844.009729514
881,0.0
943,0.0
2,10, 4,10, 1,11, 0.00,60.00,Monday
25,164696.131145844
61,0.0
153,164696.131145844
615,301844.009729514
881,0.0
943,0.0
2,10, 4,10, 1,12, 0.00,60.00,Monday
25,164696.131145844
61,0.0
153,164696.131145844
615,301844.009729514
881,0.0
943,0.0
2,10, 4,10, 1,13, 0.00,60.00,Monday
25,164696.131145844
61,0.0
153,164696.131145844
615,301844.009729514
881,0.0
943,0.0
2,10, 4,10, 1,14, 0.00,60.00,Monday
25,164696.131145844
61,0.0
153,164696.131145844
615,301844.009729514
881,0.0
943,0.0