Program Version,EnergyPlus, Version 9.0.1-bb7ca4f0da, YMD=2021.02.10 17:16
1,5,Environment Title[],Latitude[deg],Longitude[deg],Time Zone[],Elevation[m]
2,8,Day of Simulation[],Month[],Day of Month[],DST Indicator[1=yes 0=no],Hour[],StartMinute[],EndMinute[],DayType
3,5,Cumulative Day of Simulation[],Month[],Day of Month[],DST Indicator[1=yes 0=no],DayType  ! When Daily Meters Requested
4,2,Cumulative Days of Simulation[],Month[]  ! When Monthly Meters Requested
5,1,Cumulative Days of Simulation[] ! When Run Period Meters Requested
6,1,Calendar Year of Simulation[] ! When Annual Meters Requested
25,1,Electricity:Facility [J] !Hourly
153,1,InteriorEquipment:Electricity [J] !Hourly
61,1,InteriorLights:Electricity [J] !Hourly
881,1,DistrictCooling:Facility [J] !Hourly
615,1,DistrictHeating:Facility [J] !Hourly
943,1,Carbon Equivalent:Facility [kg] !Hourly
End of Data Dictionary
1,MODELLO (O1-O4:3O-O9),  34.88,  33.62,   2.00,   2.40
2,1, 4, 1, 1, 1, 0.00,60.00,Saturday
25,164696.131145844
61,0.0
153,164696.131145844
615,301844.009729514
881,0.0
943,0.0
2,1, 4, 1, 1, 2, 0.00,60.00,Saturday
25,164696.131145844
61,0.0
153,164696.131145844
615,301844.009729514
881,0.0
943,0.0
2,1, 4, 1, 1, 3, 0.00,60.00,Saturday
25,164696.131145844
61,0.0
153,164696.131145844
615,301844.009729514
881,0.0
943,0.0
2,1, 4, 1, 1, 4, 0.00,60.00,Saturday
25,164696.131145844
61,0.0
153,164696.131145844
615,301844.009729514
881,0.0
943,0.0
2,1, 4, 1, 1, 5, 0.00,60.00,Saturday
25,164696.131145844
61,0.0
153,164696.131145844
615,301844.009729514
881,0.0
943,0.0
2,1, 4, 1, 1, 6, 0.00,60.00,Saturday
25,164696.131145844
61,0.0
153,164696.131145844
615,301844.009729514
881,0.0
943,0.0
2,1, 4, 1, 1, 7, 0.00,60.00,Saturday
25,3812640.746532042
61,1473637.1537083253
153,2339003.5928237165
615,594726.1006348964
881,0.0
943,0.0
2,1, 4, 1, 1, 8, 0.00,60.00,Saturday
25,3847916.457091116
61,1392606.1562808958
153,2455310.30081022
615,594726.1006348963
881,0.0
943,0.0
2,1, 4, 1, 1, 9, 0.00,60.00,Saturday
25,3603175.7897955549
61,1264172.196971838
153,2339003.5928237165
615,594726.1006348963
881,0.0
943,0.0
2,1, 4, 1, 1,10, 0.00,60.00,Saturday
25,164696.131145844
61,0.0
153,164696.131145844
615,301844.009729514
881,0.0
943,0.0
2,1, 4, 1, 1,11, 0.00,60.00,Saturday
25,164696.131145844
61,0.0
153,164696.131145844
615,301844.009729514
881,0.0
943,0.0
2,1, 4, 1, 1,12, 0.00,60.00,Saturday
25,164696.131145844
61,0.0
153,164696.131145844
615,301844.009729514
881,0.0
943,0.0
2,1, 4, 1, 1,13, 0.00,60.00,Saturday
25,164696.131145844
61,0.0
153,164696.131145844
615,301844.009729514
881,0.0
943,0.0
2,1, 4, 1, 1,14, 0.00,60.00,Saturday
25,164696.131145844
61,0.0
153,164696.131145844
615,301844.009729514
881,0.0
943,0.0
2,1, 4, 1, 1,15, 0.00,60.00,Saturday
25,164696.131145844
61,0.0
153,164696.131145844
615,301844.009729514
881,0.0
943,0.0
2,1, 4, 1, 1,16, 0.00,60.00,Saturday
25,164696.131145844
61,0.0
153,164696.131145844
615,301844.009729514
881,0.0
943,0.0
2,1, 4, 1, 1,17, 0.00,60.00,Saturday
25,222850.73566818
61,0.0
153,222850.73566818
615,301844.009729514
881,0.0
943,0.0
2,1, 4, 1, 1,18, 0.00,60.00,Saturday
25,281005.340190516
61,0.0
153,281005.340190516
615,301844.009729514
881,0.0
943,0.0
2,1, 4, 1, 1,19, 0.00,60.00,Saturday
25,2036685.5541813244
61,1285928.4600000005
153,750757.0941813242
615,360420.4279105905
881,0.0
943,0.0
2,1, 4, 1, 1,20, 0.00,60.00,Saturday
25,2094840.1587036604
61,1285928.4600000005
153,808911.69870366
615,360420.4279105905
881,0.0
943,0.0
2,1, 4, 1, 1,21, 0.00,60.00,Saturday
25,2094840.1587036604
61,1285928.4600000005
153,808911.69870366
615,360420.4279105905
881,0.0
943,0.0
2,1, 4, 1, 1,22, 0.00,60.00,Saturday
25,2036685.5541813244
61,1285928.4600000005
153,750757.0941813242
615,360420.4279105905
881,0.0
943,0.0
2,1, 4, 1, 1,23, 0.00,60.00,Saturday
25,222850.73566818
61,0.0
153,222850.73566818
615,301844.009729514
881,0.0
943,0.0
2,1, 4, 1, 1,24, 0.00,60.00,Saturday
25,164696.131145844
61,0.0
153,164696.131145844
615,301844.009729514
881,0.0
943,0.0
2,2, 4, 2, 1, 1, 0.00,60.00,Sunday
25,164696.131145844
61,0.0
153,164696.131145844
615,301844.009729514
881,0.0
943,0.0
2,2, 4, 2, 1, 2, 0.00,60.00,Sunday
25,164696.131145844
61,0.0
153,164696.131145844
615,301844.009729514
881,0.0
943,0.0
2,2, 4, 2, 1, 3, 0.00,60.00,Sunday
25,164696.131145844
61,0.0
153,164696.131145844
615,301844.009729514
881,0.0
943,0.0
2,2, 4, 2, 1, 4, 0.00,60.00,Sunday
25,164696.131145844
61,0.0
153,164696.131145844
615,301844.009729514
881,0.0
943,0.0
2,2, 4, 2, 1, 5, 0.00,60.00,Sunday
25,164696.131145844
61,0.0
153,164696.131145844
615,301844.009729514
881,0.0
943,0.0
2,2, 4, 2, 1, 6, 0.00,60.00,Sunday
25,164696.131145844
61,0.0
153,164696.131145844
615,301844.009729514
881,0.0
943,0.0
2,2, 4, 2, 1, 7, 0.00,60.00,Sunday
25,3838476.216910959
61,1499472.6240872425
153,2339003.5928237165
615,594726.1006348964
881,0.0
943,0.0
2,2, 4, 2, 1, 8, 0.00,60.00,Sunday
25,3850656.6310275897
61,1395346.3302173697
153,2455310.30081022
615,594726.1006348963
881,0.0
943,0.0
2,2, 4, 2, 1, 9, 0.00,60.00,Sunday
25,3637219.3530318879
61,1298215.7602081714
153,2339003.5928237165
615,594726.1006348964
881,0.0
943,0.0
2,2, 4, 2, 1,10, 0.00,60.00,Sunday
25,164696.131145844
61,0.0
153,164696.131145844
615,301844.009729514
881,0.0
943,0.0
2,2, 4, 2, 1,11, 0.00,60.00,Sunday
25,164696.131145844
61,0.0
153,164696.131145844
615,301844.009729514
881,0.0
943,0.0
2,2, 4, 2, 1,12, 0.00,60.00,Sunday
25,164696.131145844
61,0.0
153,164696.131145844
615,301844.009729514
881,0.0
943,0.0
2,2, 4, 2, 1,13, 0.00,60.00,Sunday
25,164696.131145844
61,0.0
153,164696.131145844
615,301844.009729514
881,0.0
943,0.0
2,2, 4, 2, 1,14, 0.00,60.00,Sunday
25,164696.131145844
61,0.0
153,164696.131145844
615,301844.009729514
881,0.0
943,0.0
2,2, 4, 2, 1,15, 0.00,60.00,Sunday
25,164696.131145844
61,0.0
153,164696.131145844
615,301844.009729514
881,0.0
943,0.0
2,2, 4, 2, 1,16, 0.00,60.00,Sunday
25,164696.131145844
61,0.0
153,164696.131145844
615,301844.009729514
881,0.0
943,0.0
2,2, 4, 2, 1,17, 0.00,60.00,Sunday
25,222850.73566818
61,0.0
153,222850.73566818
615,301844.009729514
881,0.0
943,0.0
2,2, 4, 2, 1,18, 0.00,60.00,Sunday
25,281005.340190516
61,0.0
153,281005.340190516
615,301844.009729514
881,0.0
943,0.0
2,2, 4, 2, 1,19, 0.00,60.00,Sunday
25,2036685.5541813244
61,1285928.4600000005
153,750757.0941813242
615,360420.4279105905
881,0.0
943,0.0
2,2, 4, 2, 1,20, 0.00,60.00,Sunday
25,2094840.1587036604
61,1285928.4600000005
153,808911.69870366
615,360420.4279105905
881,0.0
943,0.0
2,2, 4, 2, 1,21, 0.00,60.00,Sunday
25,2094840.1587036604
61,1285928.4600000005
153,808911.69870366
615,360420.4279105905
881,0.0
943,0.0
2,2, 4, 2, 1,22, 0.00,60.00,Sunday
25,2036685.5541813244
61,1285928.4600000005
153,750757.0941813242
615,360420.4279105905
881,0.0
943,0.0
2,2, 4, 2, 1,23, 0.00,60.00,Sunday
25,222850.73566818
61,0.0
153,222850.73566818
615,301844.009729514
881,0.0
943,0.0
2,2, 4, 2, 1,24, 0.00,60.00,Sunday
25,164696.131145844
61,0.0
153,164696.131145844
615,301844.009729514
881,0.0
943,0.0
2,3, 4, 3, 1, 1, 0.00,60.00,Monday
25,164696.131145844
61,0.0
153,164696.131145844
615,301844.009729514
881,0.0
943,0.0
2,3, 4, 3, 1, 2, 0.00,60.00,Monday
25,164696.131145844
61,0.0
153,164696.131145844
615,301844.009729514
881,0.0
943,0.0
2,3, 4, 3, 1, 3, 0.00,60.00,Monday
25,164696.131145844
61,0.0
153,164696.131145844
615,301844.009729514
881,0.0
943,0.0
2,3, 4, 3, 1, 4, 0.00,60.00,Monday
25,164696.131145844
61,0.0
153,164696.131145844
615,301844.009729514
881,0.0
943,0.0
2,3, 4, 3, 1, 5, 0.00,60.00,Monday
25,164696.131145844
61,0.0
153,164696.131145844
615,301844.009729514
881,0.0
943,0.0
2,3, 4, 3, 1, 6, 0.00,60.00,Monday
25,171210.21493910402
61,0.0
153,171210.21493910402
615,301844.009729514
881,0.0
943,0.0
2,3, 4, 3, 1, 7, 0.00,60.00,Monday
25,3823337.5565390328
61,1458277.905725536
153,2365059.6508134969
615,594726.1006348964
881,0.0
943,0.0
2,3, 4, 3, 1, 8, 0.00,60.00,Monday
25,3818727.7661064926
61,1337361.4073064919
153,2481366.3588
615,594726.1006348964
881,0.0
943,0.0
2,3, 4, 3, 1, 9, 0.00,60.00,Monday
25,3596642.8354529228
61,1251125.158835946
153,2345517.6766169767
615,594726.1006348963
881,0.0
943,0.0
2,3, 4, 3, 1,10, 0.00,60.00,Monday
25,164696.131145844
61,0.0
153,164696.131145844
615,301844.009729514
881,0.0
943,0.0
2,3, 4, 3, 1,11, 0.00,60.00,Monday
25,164696.131145844
61,0.0
153,164696.131145844
615,301844.009729514
881,0.0
943,0.0
2,3, 4, 3, 1,12, 0.00,60.00,Monday
25,164696.131145844
61,0.0
153,164696.131145844
615,301844.009729514
881,0.0
943,0.0
2,3, 4, 3, 1,13, 0.00,60.00,Monday
25,164696.131145844
61,0.0
153,164696.131145844
615,301844.009729514
881,0.0
943,0.0
2,3, 4, 3, 1,14, 0.00,60.00,Monday
25,164696.131145844
61,0.0
153,164696.131145844
615,301844.009729514
881,0.0
943,0.0
2,3, 4, 3, 1,15, 0.00,60.00,Monday
25,164696.131145844
61,0.0
153,164696.131145844
615,301844.009729514
881,0.0
943,0.0
2,3, 4, 3, 1,16, 0.00,60.00,Monday
25,164696.131145844
61,0.0
153,164696.131145844
615,301844.009729514
881,0.0
943,0.0
2,3, 4, 3, 1,17, 0.00,60.00,Monday
25,222850.73566818
61,0.0
153,222850.73566818
615,301844.009729514
881,0.0
943,0.0
2,3, 4, 3, 1,18, 0.00,60.00,Monday
25,294033.507777036
61,0.0
153,294033.507777036
615,301844.009729514
881,0.0
943,0.0
2,3, 4, 3, 1,19, 0.00,60.00,Monday
25,2062741.6121711042
61,1285928.4600000005
153,776813.1521711041
615,360420.4279105905
881,0.0
943,0.0
2,3, 4, 3, 1,20, 0.00,60.00,Monday
25,2120896.2166934406
61,1285928.4600000005
153,834967.7566934403
615,360420.4279105904
881,0.0
943,0.0
2,3, 4, 3, 1,21, 0.00,60.00,Monday
25,2102657.0038189205
61,1285928.4600000005
153,816728.5438189202
615,360420.4279105904
881,0.0
943,0.0
2,3, 4, 3, 1,22, 0.00,60.00,Monday
25,2036685.5541813244
61,1285928.4600000005
153,750757.0941813242
615,360420.4279105904
881,0.0
943,0.0
2,3, 4, 3, 1,23, 0.00,60.00,Monday
25,222850.73566818
61,0.0
153,222850.73566818
615,301844.009729514
881,0.0
943,0.0
2,3, 4, 3, 1,24, 0.00,60.00,Monday
25,164696.131145844
61,0.0
153,164696.131145844
615,301844.009729514
881,0.0
943,0.0
2,4, 4, 4, 1, 1, 0.00,60.00,Tuesday
25,164696.131145844
61,0.0
153,164696.131145844
615,301844.009729514
881,0.0
943,0.0
2,4, 4, 4, 1, 2, 0.00,60.00,Tuesday
25,164696.131145844
61,0.0
153,164696.131145844
615,301844.009729514
881,0.0
943,0.0
2,4, 4, 4, 1, 3, 0.00,60.00,Tuesday
25,164696.131145844
61,0.0
153,164696.131145844
615,301844.009729514
881,0.0
943,0.0
2,4, 4, 4, 1, 4, 0.00,60.00,Tuesday
25,164696.131145844
61,0.0
153,164696.131145844
615,301844.009729514
881,0.0
943,0.0
2,4, 4, 4, 1, 5, 0.00,60.00,Tuesday
25,164696.131145844
61,0.0
153,164696.131145844
615,301844.009729514
881,0.0
943,0.0
2,4, 4, 4, 1, 6, 0.00,60.00,Tuesday
25,171210.21493910402
61,0.0
153,171210.21493910402
615,301844.009729514
881,0.0
943,0.0
2,4, 4, 4, 1, 7, 0.00,60.00,Tuesday
25,3847636.22032628
61,1482576.5695127834
153,2365059.6508134969
615,594726.1006348964
881,0.0
943,0.0
2,4, 4, 4, 1, 8, 0.00,60.00,Tuesday
25,3803957.582820284
61,1322591.2240202842
153,2481366.3588
615,594726.1006348964
881,0.0
943,0.0
2,4, 4, 4, 1, 9, 0.00,60.00,Tuesday
25,3589345.9188250696
61,1243828.2422080923
153,2345517.6766169767
615,594726.1006348963
881,0.0
943,0.0
2,4, 4, 4, 1,10, 0.00,60.00,Tuesday
25,164696.131145844
61,0.0
153,164696.131145844
615,301844.009729514
881,0.0
943,0.0
2,4, 4, 4, 1,11, 0.00,60.00,Tuesday
25,164696.131145844
61,0.0
153,164696.131145844
615,301844.009729514
881,0.0
943,0.0
2,4, 4, 4, 1,12, 0.00,60.00,Tuesday
25,164696.131145844
61,0.0
153,164696.131145844
615,301844.009729514
881,0.0
943,0.0
2,4, 4, 4, 1,13, 0.00,60.00,Tuesday
25,164696.131145844
61,0.0
153,164696.131145844
615,301844.009729514
881,0.0
943,0.0
2,4, 4, 4, 1,14, 0.00,60.00,Tuesday
25,164696.131145844
61,0.0
153,164696.131145844
615,301844.009729514
881,0.0
943,0.0
2,4, 4, 4, 1,15, 0.00,60.00,Tuesday
25,164696.131145844
61,0.0
153,164696.131145844
615,301844.009729514
881,0.0
943,0.0
2,4, 4, 4, 1,16, 0.00,60.00,Tuesday
25,164696.131145844
61,0.0
153,164696.131145844
615,301844.009729514
881,0.0
943,0.0
2,4, 4, 4, 1,17, 0.00,60.00,Tuesday
25,222850.73566818
61,0.0
153,222850.73566818
615,301844.009729514
881,0.0
943,0.0
2,4, 4, 4, 1,18, 0.00,60.00,Tuesday
25,294033.507777036
61,0.0
153,294033.507777036
615,301844.009729514
881,0.0
943,0.0
2,4, 4, 4, 1,19, 0.00,60.00,Tuesday
25,2062741.6121711042
61,1285928.4600000005
153,776813.1521711041
615,360420.4279105904
881,0.0
943,0.0
2,4, 4, 4, 1,20, 0.00,60.00,Tuesday
25,2120896.2166934406
61,1285928.4600000005
153,834967.7566934403
615,360420.4279105904
881,0.0
943,0.0
2,4, 4, 4, 1,21, 0.00,60.00,Tuesday
25,2102657.0038189205
61,1285928.4600000005
153,816728.5438189202
615,360420.4279105905
881,0.0
943,0.0
2,4, 4, 4, 1,22, 0.00,60.00,Tuesday
25,2036685.5541813244
61,1285928.4600000005
153,750757.0941813242
615,360420.4279105904
881,0.0
943,0.0
2,4, 4, 4, 1,23, 0.00,60.00,Tuesday
25,222850.73566818
61,0.0
153,222850.73566818
615,301844.009729514
881,0.0
943,0.0
2,4, 4, 4, 1,24, 0.00,60.00,Tuesday
25,164696.131145844
61,0.0
153,164696.131145844
615,301844.009729514
881,0.0
943,0.0
2,5, 4, 5, 1, 1, 0.00,60.00,Wednesday
25,164696.131145844
61,0.0
153,164696.131145844
615,301844.009729514
881,0.0
943,0.0
2,5, 4, 5, 1, 2, 0.00,60.00,Wednesday
25,164696.131145844
61,0.0
153,164696.131145844
615,301844.009729514
881,0.0
943,0.0
2,5, 4, 5, 1, 3, 0.00,60.00,Wednesday
25,164696.131145844
61,0.0
153,164696.131145844
615,301844.009729514
881,0.0
943,0.0
2,5, 4, 5, 1, 4, 0.00,60.00,Wednesday
25,164696.131145844
61,0.0
153,164696.131145844
615,301844.009729514
881,0.0
943,0.0
2,5, 4, 5, 1, 5, 0.00,60.00,Wednesday
25,164696.131145844
61,0.0
153,164696.131145844
615,301844.009729514
881,0.0
943,0.0
2,5, 4, 5, 1, 6, 0.00,60.00,Wednesday
25,171210.21493910402
61,0.0
153,171210.21493910402
615,301844.009729514
881,0.0
943,0.0
2,5, 4, 5, 1, 7, 0.00,60.00,Wednesday
25,3807991.9217873548
61,1442932.2709738585
153,2365059.6508134969
615,594726.1006348964
881,0.0
943,0.0
2,5, 4, 5, 1, 8, 0.00,60.00,Wednesday
25,3808191.557470671
61,1326825.1986706705
153,2481366.3588
615,594726.1006348964
881,0.0
943,0.0
2,5, 4, 5, 1, 9, 0.00,60.00,Wednesday
25,3622924.0901814547
61,1277406.413564478
153,2345517.6766169767
615,594726.1006348964
881,0.0
943,0.0
2,5, 4, 5, 1,10, 0.00,60.00,Wednesday
25,164696.131145844
61,0.0
153,164696.131145844
615,301844.009729514
881,0.0
943,0.0
2,5, 4, 5, 1,11, 0.00,60.00,Wednesday
25,164696.131145844
61,0.0
153,164696.131145844
615,301844.009729514
881,0.0
943,0.0
2,5, 4, 5, 1,12, 0.00,60.00,Wednesday
25,164696.131145844
61,0.0
153,164696.131145844
615,301844.009729514
881,0.0
943,0.0
2,5, 4, 5, 1,13, 0.00,60.00,Wednesday
25,164696.131145844
61,0.0
153,164696.131145844
615,301844.009729514
881,0.0
943,0.0
2,5, 4, 5, 1,14, 0.00,60.00,Wednesday
25,164696.131145844
61,0.0
153,164696.131145844
615,301844.009729514
881,0.0
943,0.0
2,5, 4, 5, 1,15, 0.00,60.00,Wednesday
25,164696.131145844
61,0.0
153,164696.131145844
615,301844.009729514
881,0.0
943,0.0
2,5, 4, 5, 1,16, 0.00,60.00,Wednesday
25,164696.131145844
61,0.0
153,164696.131145844
615,301844.009729514
881,0.0
943,0.0
2,5, 4, 5, 1,17, 0.00,60.00,Wednesday
25,222850.73566818
61,0.0
153,222850.73566818
615,301844.009729514
881,0.0
943,0.0
2,5, 4, 5, 1,18, 0.00,60.00,Wednesday
25,294033.507777036
61,0.0
153,294033.507777036
615,301844.009729514
881,0.0
943,0.0
2,5, 4, 5, 1,19, 0.00,60.00,Wednesday
25,2062741.6121711042
61,1285928.4600000005
153,776813.1521711041
615,360420.4279105904
881,0.0
943,0.0
2,5, 4, 5, 1,20, 0.00,60.00,Wednesday
25,2120896.2166934406
61,1285928.4600000005
153,834967.7566934403
615,360420.4279105904
881,0.0
943,0.0
2,5, 4, 5, 1,21, 0.00,60.00,Wednesday
25,2102657.0038189205
61,1285928.4600000005
153,816728.5438189202
615,360420.4279105904
881,0.0
943,0.0
2,5, 4, 5, 1,22, 0.00,60.00,Wednesday
25,2036685.5541813244
61,1285928.4600000005
153,750757.0941813242
615,360420.4279105905
881,0.0
943,0.0
2,5, 4, 5, 1,23, 0.00,60.00,Wednesday
25,222850.73566818
61,0.0
153,222850.73566818
615,301844.009729514
881,0.0
943,0.0
2,5, 4, 5, 1,24, 0.00,60.00,Wednesday
25,164696.131145844
61,0.0
153,164696.131145844
615,301844.009729514
881,0.0
943,0.0
2,6, 4, 6, 1, 1, 0.00,60.00,Thursday
25,164696.131145844
61,0.0
153,164696.131145844
615,301844.009729514
881,0.0
943,0.0
2,6, 4, 6, 1, 2, 0.00,60.00,Thursday
25,164696.131145844
61,0.0
153,164696.131145844
615,301844.009729514
881,0.0
943,0.0
2,6, 4, 6, 1, 3, 0.00,60.00,Thursday
25,164696.131145844
61,0.0
153,164696.131145844
615,301844.009729514
881,0.0
943,0.0
2,6, 4, 6, 1, 4, 0.00,60.00,Thursday
25,164696.131145844
61,0.0
153,164696.131145844
615,301844.009729514
881,0.0
943,0.0
2,6, 4, 6, 1, 5, 0.00,60.00,Thursday
25,164696.131145844
61,0.0
153,164696.131145844
615,301844.009729514
881,0.0
943,0.0
2,6, 4, 6, 1, 6, 0.00,60.00,Thursday
25,171210.21493910402
61,0.0
153,171210.21493910402
615,301844.009729514
881,0.0
943,0.0
2,6, 4, 6, 1, 7, 0.00,60.00,Thursday
25,3805885.5061723089
61,1440825.8553588126
153,2365059.6508134969
615,594726.1006348963
881,0.0
943,0.0
2,6, 4, 6, 1, 8, 0.00,60.00,Thursday
25,3812238.923976396
61,1330872.5651763962
153,2481366.3588
615,594726.1006348964
881,0.0
943,0.0
2,6, 4, 6, 1, 9, 0.00,60.00,Thursday
25,3613932.711559261
61,1268415.0349422848
153,2345517.6766169767
615,594726.1006348963
881,0.0
943,0.0
2,6, 4, 6, 1,10, 0.00,60.00,Thursday
25,164696.131145844
61,0.0
153,164696.131145844
615,301844.009729514
881,0.0
943,0.0
2,6, 4, 6, 1,11, 0.00,60.00,Thursday
25,164696.131145844
61,0.0
153,164696.131145844
615,301844.009729514
881,0.0
943,0.0
2,6, 4, 6, 1,12, 0.00,60.00,Thursday
25,164696.131145844
61,0.0
153,164696.131145844
615,301844.009729514
881,0.0
943,0.0
2,6, 4, 6, 1,13, 0.00,60.00,Thursday
25,164696.131145844
61,0.0
153,164696.131145844
615,301844.009729514
881,0.0
943,0.0
2,6, 4, 6, 1,14, 0.00,60.00,Thursday
25,164696.131145844
61,0.0
153,164696.131145844
615,301844.009729514
881,0.0
943,0.0
2,6, 4, 6, 1,15, 0.00,60.00,Thursday
25,164696.131145844
61,0.0
153,164696.131145844
615,301844.009729514
881,0.0
943,0.0
2,6, 4, 6, 1,16, 0.00,60.00,Thursday
25,164696.131145844
61,0.0
153,164696.131145844
615,301844.009729514
881,0.0
943,0.0
2,6, 4, 6, 1,17, 0.00,60.00,Thursday
25,222850.73566818
61,0.0
153,222850.73566818
615,301844.009729514
881,0.0
943,0.0
2,6, 4, 6, 1,18, 0.00,60.00,Thursday
25,294033.507777036
61,0.0
153,294033.507777036
615,301844.009729514
881,0.0
943,0.0
2,6, 4, 6, 1,19, 0.00,60.00,Thursday
25,2062741.6121711042
61,1285928.4600000005
153,776813.1521711041
615,360420.4279105905
881,0.0
943,0.0
2,6, 4, 6, 1,20, 0.00,60.00,Thursday
25,2120896.2166934406
61,1285928.4600000005
153,834967.7566934403
615,360420.4279105905
881,0.0
943,0.0
2,6, 4, 6, 1,21, 0.00,60.00,Thursday
25,2102657.0038189205
61,1285928.4600000005
153,816728.5438189202
615,360420.4279105905
881,0.0
943,0.0
2,6, 4, 6, 1,22, 0.00,60.00,Thursday
25,2036685.5541813244
61,1285928.4600000005
153,750757.0941813242
615,360420.4279105905
881,0.0
943,0.0
2,6, 4, 6, 1,23, 0.00,60.00,Thursday
25,222850.73566818
61,0.0
153,222850.73566818
615,301844.009729514
881,0.0
943,0.0
2,6, 4, 6, 1,24, 0.00,60.00,Thursday
25,164696.131145844
61,0.0
153,164696.131145844
615,301844.009729514
881,0.0
943,0.0
2,7, 4, 7, 1, 1, 0.00,60.00,Friday
25,164696.131145844
61,0.0
153,164696.131145844
615,301844.009729514
881,0.0
943,0.0
2,7, 4, 7, 1, 2, 0.00,60.00,Friday
25,164696.131145844
61,0.0
153,164696.131145844
615,301844.009729514
881,0.0
943,0.0
2,7, 4, 7, 1, 3, 0.00,60.00,Friday
25,164696.131145844
61,0.0
153,164696.131145844
615,301844.009729514
881,0.0
943,0.0
2,7, 4, 7, 1, 4, 0.00,60.00,Friday
25,164696.131145844
61,0.0
153,164696.131145844
615,301844.009729514
881,0.0
943,0.0
2,7, 4, 7, 1, 5, 0.00,60.00,Friday
25,164696.131145844
61,0.0
153,164696.131145844
615,301844.009729514
881,0.0
943,0.0
2,7, 4, 7, 1, 6, 0.00,60.00,Friday
25,171210.21493910402
61,0.0
153,171210.21493910402
615,301844.009729514
881,0.0
943,0.0
2,7, 4, 7, 1, 7, 0.00,60.00,Friday
25,3805243.941988591
61,1440184.2911750945
153,2365059.6508134969
615,594726.1006348964
881,0.0
943,0.0
2,7, 4, 7, 1, 8, 0.00,60.00,Friday
25,3818330.72584416
61,1336964.3670441597
153,2481366.3588
615,594726.1006348963
881,0.0
943,0.0
2,7, 4, 7, 1, 9, 0.00,60.00,Friday
25,3597408.9899305806
61,1251891.3133136039
153,2345517.6766169767
615,594726.1006348964
881,0.0
943,0.0
2,7, 4, 7, 1,10, 0.00,60.00,Friday
25,164696.131145844
61,0.0
153,164696.131145844
615,301844.009729514
881,0.0
943,0.0
2,7, 4, 7, 1,11, 0.00,60.00,Friday
25,164696.131145844
61,0.0
153,164696.131145844
615,301844.009729514
881,0.0
943,0.0
2,7, 4, 7, 1,12, 0.00,60.00,Friday
25,164696.131145844
61,0.0
153,164696.131145844
615,301844.009729514
881,0.0
943,0.0
2,7, 4, 7, 1,13, 0.00,60.00,Friday
25,164696.131145844
61,0.0
153,164696.131145844
615,301844.009729514
881,0.0
943,0.0
2,7, 4, 7, 1,14, 0.00,60.00,Friday
25,164696.131145844
61,0.0
153,164696.131145844
615,301844.009729514
881,0.0
943,0.0
2,7, 4, 7, 1,15, 0.00,60.00,Friday
25,164696.131145844
61,0.0
153,164696.131145844
615,301844.009729514
881,0.0
943,0.0
2,7, 4, 7, 1,16, 0.00,60.00,Friday
25,164696.131145844
61,0.0
153,164696.131145844
615,301844.009729514
881,0.0
943,0.0
2,7, 4, 7, 1,17, 0.00,60.00,Friday
25,222850.73566818
61,0.0
153,222850.73566818
615,301844.009729514
881,0.0
943,0.0
2,7, 4, 7, 1,18, 0.00,60.00,Friday
25,294033.507777036
61,0.0
153,294033.507777036
615,301844.009729514
881,0.0
943,0.0
2,7, 4, 7, 1,19, 0.00,60.00,Friday
25,2062741.6121711042
61,1285928.4600000005
153,776813.1521711041
615,360420.4279105905
881,0.0
943,0.0
2,7, 4, 7, 1,20, 0.00,60.00,Friday
25,2120896.2166934406
61,1285928.4600000005
153,834967.7566934403
615,360420.4279105905
881,0.0
943,0.0
2,7, 4, 7, 1,21, 0.00,60.00,Friday
25,2102657.0038189205
61,1285928.4600000005
153,816728.5438189202
615,360420.4279105905
881,0.0
943,0.0
2,7, 4, 7, 1,22, 0.00,60.00,Friday
25,2036685.5541813244
61,1285928.4600000005
153,750757.0941813242
615,360420.4279105905
881,0.0
943,0.0
2,7, 4, 7, 1,23, 0.00,60.00,Friday
25,222850.73566818
61,0.0
153,222850.73566818
615,301844.009729514
881,0.0
943,0.0
2,7, 4, 7, 1,24, 0.00,60.00,Friday
25,164696.131145844
61,0.0
153,164696.131145844
615,301844.009729514
881,0.0
943,0.0
2,8, 4, 8, 1, 1, 0.00,60.00,Saturday
25,164696.131145844
61,0.0
153,164696.131145844
615,301844.009729514
881,0.0
943,0.0
2,8, 4, 8, 1, 2, 0.00,60.00,Saturday
25,164696.131145844
61,0.0
153,164696.131145844
615,301844.009729514
881,0.0
943,0.0
2,8, 4, 8, 1, 3, 0.00,60.00,Saturday
25,164696.131145844
61,0.0
153,164696.131145844
615,301844.009729514
881,0.0
943,0.0
2,8, 4, 8, 1, 4, 0.00,60.00,Saturday
25,164696.131145844
61,0.0
153,164696.131145844
615,301844.009729514
881,0.0
943,0.0
2,8, 4, 8, 1, 5, 0.00,60.00,Saturday
25,164696.131145844
61,0.0
153,164696.131145844
615,301844.009729514
881,0.0
943,0.0
2,8, 4, 8, 1, 6, 0.00,60.00,Saturday
25,164696.131145844
61,0.0
153,164696.131145844
615,301844.009729514
881,0.0
943,0.0
2,8, 4, 8, 1, 7, 0.00,60.00,Saturday
25,3779082.8860152044
61,1440079.2931914877
153,2339003.5928237165
615,594726.1006348964
881,0.0
943,0.0
2,8, 4, 8, 1, 8, 0.00,60.00,Saturday
25,3777140.0249061107
61,1321829.7240958899
153,2455310.30081022
615,594726.1006348963
881,0.0
943,0.0
2,8, 4, 8, 1, 9, 0.00,60.00,Saturday
25,3584846.6224786706
61,1245843.0296549539
153,2339003.5928237165
615,594726.1006348963
881,0.0
943,0.0
2,8, 4, 8, 1,10, 0.00,60.00,Saturday
25,164696.131145844
61,0.0
153,164696.131145844
615,301844.009729514
881,0.0
943,0.0
2,8, 4, 8, 1,11, 0.00,60.00,Saturday
25,164696.131145844
61,0.0
153,164696.131145844
615,301844.009729514
881,0.0
943,0.0
2,8, 4, 8, 1,12, 0.00,60.00,Saturday
25,164696.131145844
61,0.0
153,164696.131145844
615,301844.009729514
881,0.0
943,0.0
2,8, 4, 8, 1,13, 0.00,60.00,Saturday
25,164696.131145844
61,0.0
153,164696.131145844
615,301844.009729514
881,0.0
943,0.0
2,8, 4, 8, 1,14, 0.00,60.00,Saturday
25,164696.131145844
61,0.0
153,164696.131145844
615,301844.009729514
881,0.0
943,0.0
2,8, 4, 8, 1,15, 0.00,60.00,Saturday
25,164696.131145844
61,0.0
153,164696.131145844
615,301844.009729514
881,0.0
943,0.0
2,8, 4, 8, 1,16, 0.00,60.00,Saturday
25,164696.131145844
61,0.0
153,164696.131145844
615,301844.009729514
881,0.0
943,0.0
2,8, 4, 8, 1,17, 0.00,60.00,Saturday
25,222850.73566818
61,0.0
153,222850.73566818
615,301844.009729514
881,0.0
943,0.0
2,8, 4, 8, 1,18, 0.00,60.00,Saturday
25,281005.340190516
61,0.0
153,281005.340190516
615,301844.009729514
881,0.0
943,0.0
2,8, 4, 8, 1,19, 0.00,60.00,Saturday
25,2036685.5541813244
61,1285928.4600000005
153,750757.0941813242
615,360420.4279105905
881,0.0
943,0.0
2,8, 4, 8, 1,20, 0.00,60.00,Saturday
25,2094840.1587036604
61,1285928.4600000005
153,808911.69870366
615,360420.4279105905
881,0.0
943,0.0
2,8, 4, 8, 1,21, 0.00,60.00,Saturday
25,2094840.1587036604
61,1285928.4600000005
153,808911.69870366
615,360420.4279105905
881,0.0
943,0.0
2,8, 4, 8, 1,22, 0.00,60.00,Saturday
25,2036685.5541813244
61,1285928.4600000005
153,750757.0941813242
615,360420.4279105905
881,0.0
943,0.0
2,8, 4, 8, 1,23, 0.00,60.00,Saturday
25,222850.73566818
61,0.0
153,222850.73566818
615,301844.009729514
881,0.0
943,0.0
2,8, 4, 8, 1,24, 0.00,60.00,Saturday
25,164696.131145844
61,0.0
153,164696.131145844
615,301844.009729514
881,0.0
943,0.0
2,9, 4, 9, 1, 1, 0.00,60.00,Sunday
25,164696.131145844
61,0.0
153,164696.131145844
615,301844.009729514
881,0.0
943,0.0
2,9, 4, 9, 1, 2, 0.00,60.00,Sunday
25,164696.131145844
61,0.0
153,164696.131145844
615,301844.009729514
881,0.0
943,0.0
2,9, 4, 9, 1, 3, 0.00,60.00,Sunday
25,164696.131145844
61,0.0
153,164696.131145844
615,301844.009729514
881,0.0
943,0.0
2,9, 4, 9, 1, 4, 0.00,60.00,Sunday
25,164696.131145844
61,0.0
153,164696.131145844
615,301844.009729514
881,0.0
943,0.0
2,9, 4, 9, 1, 5, 0.00,60.00,Sunday
25,164696.131145844
61,0.0
153,164696.131145844
615,301844.009729514
881,0.0
943,0.0
2,9, 4, 9, 1, 6, 0.00,60.00,Sunday
25,164696.131145844
61,0.0
153,164696.131145844
615,301844.009729514
881,0.0
943,0.0
2,9, 4, 9, 1, 7, 0.00,60.00,Sunday
25,3774118.428207371
61,1435114.8353836544
153,2339003.5928237165
615,594726.1006348964
881,0.0
943,0.0
2,9, 4, 9, 1, 8, 0.00,60.00,Sunday
25,3784150.0929126159
61,1328839.7921023956
153,2455310.30081022
615,594726.1006348963
881,0.0
943,0.0
2,9, 4, 9, 1, 9, 0.00,60.00,Sunday
25,3627552.265932717
61,1288548.6731090004
153,2339003.5928237165
615,594726.1006348963
881,0.0
943,0.0
2,9, 4, 9, 1,10, 0.00,60.00,Sunday
25,164696.131145844
61,0.0
153,164696.131145844
615,301844.009729514
881,0.0
943,0.0
2,9, 4, 9, 1,11, 0.00,60.00,Sunday
25,164696.131145844
61,0.0
153,164696.131145844
615,301844.009729514
881,0.0
943,0.0
2,9, 4, 9, 1,12, 0.00,60.00,Sunday
25,164696.131145844
61,0.0
153,164696.131145844
615,301844.009729514
881,0.0
943,0.0
2,9, 4, 9, 1,13, 0.00,60.00,Sunday
25,164696.131145844
61,0.0
153,164696.131145844
615,301844.009729514
881,0.0
943,0.0
2,9, 4, 9, 1,14, 0.00,60.00,Sunday
25,164696.131145844
61,0.0
153,164696.131145844
615,301844.009729514
881,0.0
943,0.0
2,9, 4, 9, 1,15, 0.00,60.00,Sunday
25,164696.131145844
61,0.0
153,164696.131145844
615,301844.009729514
881,0.0
943,0.0
2,9, 4, 9, 1,16, 0.00,60.00,Sunday
25,164696.131145844
61,0.0
153,164696.131145844
615,301844.009729514
881,0.0
943,0.0
2,9, 4, 9, 1,17, 0.00,60.00,Sunday
25,222850.73566818
61,0.0
153,222850.73566818
615,301844.009729514
881,0.0
943,0.0
2,9, 4, 9, 1,18, 0.00,60.00,Sunday
25,281005.340190516
61,0.0
153,281005.340190516
615,301844.009729514
881,0.0
943,0.0
2,9, 4, 9, 1,19, 0.00,60.00,Sunday
25,2036685.5541813244
61,1285928.4600000005
153,750757.0941813242
615,360420.4279105905
881,0.0
943,0.0
2,9, 4, 9, 1,20, 0.00,60.00,Sunday
25,2094840.1587036604
61,1285928.4600000005
153,808911.69870366
615,360420.4279105905
881,0.0
943,0.0
2,9, 4, 9, 1,21, 0.00,60.00,Sunday
25,2094840.1587036604
61,1285928.4600000005
153,808911.69870366
615,360420.4279105905
881,0.0
943,0.0
2,9, 4, 9, 1,22, 0.00,60.00,Sunday
25,2036685.5541813244
61,1285928.4600000005
153,750757.0941813242
615,360420.4279105905
881,0.0
943,0.0
2,9, 4, 9, 1,23, 0.00,60.00,Sunday
25,222850.73566818
61,0.0
153,222850.73566818
615,301844.009729514
881,0.0
943,0.0
2,9, 4, 9, 1,24, 0.00,60.00,Sunday
25,164696.131145844
61,0.0
153,164696.131145844
615,301844.009729514
881,0.0
943,0.0
2,10, 4,10, 1, 1, 0.00,60.00,Monday
25,164696.131145844
61,0.0
153,164696.131145844
615,301844.009729514
881,0.0
943,0.0
2,10, 4,10, 1, 2, 0.00,60.00,Monday
25,164696.131145844
61,0.0
153,164696.131145844
615,301844.009729514
881,0.0
943,0.0
2,10, 4,10, 1, 3, 0.00,60.00,Monday
25,164696.131145844
61,0.0
153,164696.131145844
615,301844.009729514
881,0.0
943,0.0
2,10, 4,10, 1, 4, 0.00,60.00,Monday
25,164696.131145844
61,0.0
153,164696.131145844
615,301844.009729514
881,0.0
943,0.0
2,10, 4,10, 1, 5, 0.00,60.00,Monday
25,164696.131145844
61,0.0
153,164696.131145844
615,301844.009729514
881,0.0
943,0.0
2,10, 4,10, 1, 6, 0.00,60.00,Monday
25,171210.21493910402
61,0.0
153,171210.21493910402
615,301844.009729514
881,0.0
943,0.0
2,10, 4,10, 1, 7, 0.00,60.00,Monday
25,3796056.1299557045
61,1430996.4791422082
153,2365059.6508134969
615,594726.1006348964
881,0.0
943,0.0
2,10, 4,10, 1, 8, 0.00,60.00,Monday
25,3805416.5424046216
61,1324050.1836046214
153,2481366.3588
615,594726.1006348963
881,0.0
943,0.0
2,10, 4,10, 1, 9, 0.00,60.00,Monday
25,3620198.5454985948
61,1274680.8688816173
153,2345517.6766169767
615,594726.1006348963
881,0.0
943,0.0
2,10, 4,10, 1,10, 0.00,60.00,Monday
25,164696.131145844
61,0.0
153,164696.131145844
615,301844.009729514
881,0.0
943,0.0
2,10, 4,10, 1,11, 0.00,60.00,Monday
25,164696.131145844
61,0.0
153,164696.131145844
615,301844.009729514
881,0.0
943,0.0
2,10, 4,10, 1,12, 0.00,60.00,Monday
25,164696.131145844
61,0.0
153,164696.131145844
615,301844.009729514
881,0.0
943,0.0
2,10, 4,10, 1,13, 0.00,60.00,Monday
25,164696.131145844
61,0.0
153,164696.131145844
615,301844.009729514
881,0.0
943,0.0
2,10, 4,10, 1,14, 0.00,60.00,Monday
25,164696.131145844
61,0.0
153,164696.131145844
615,301844.009729514
881,0.0
943,0.0